256
Lattice="6.717589 0.0 0.0 0.0 6.717589 0.0 0.0 0.0 6.717589" Properties=species:S:1:pos:R:3 Time=100
Ar  3.01592856e+00  3.00081733e+00  2.97125322e+00
Ar  2.87046495e+00  2.84529546e+00 -2.15843429e+00
Ar  3.06660191e+00  3.10578162e+00 -3.37531731e-01
Ar  2.83052422e+00  2.75518350e+00  1.31476538e+00
Ar  3.06511623e+00 -2.81102929e+00 -2.88409667e+00
Ar  2.65938027e+00 -3.01243140e+00 -1.26437187e+00
Ar  2.80701769e+00 -2.90938704e+00  4.25110399e-01
Ar  2.85539797e+00 -3.11143334e+00  1.98481198e+00
Ar  2.91996284e+00 -2.12546220e+00  2.97423149e+00
Ar  2.94362111e+00 -2.25069718e+00 -1.93122332e+00
Ar  3.00772626e+00 -2.07929552e+00 -4.72745047e-01
Ar  3.07380478e+00 -2.13856113e+00  1.15495585e+00
Ar  3.07092470e+00 -1.30129424e+00 -2.91026295e+00
Ar  3.04845469e+00 -1.43233300e+00 -1.32585695e+00
Ar  2.59480365e+00 -1.38020579e+00  4.56156404e-01
Ar  3.08018625e+00 -1.29280368e+00  1.91303156e+00
Ar  3.20800092e+00 -4.93520007e-01  3.02074815e+00
Ar  2.88419091e+00 -4.48909631e-01 -2.26199951e+00
Ar  2.62689166e+00 -5.05971743e-01 -4.15517655e-01
Ar  2.93289735e+00 -4.01781515e-01  1.10241882e+00
Ar  2.98234560e+00  2.69209601e-01 -3.07962440e+00
Ar  2.71687952e+00  3.21297241e-01 -1.37934665e+00
Ar  3.04221037e+00  6.14097727e-01  5.04163545e-01
Ar  2.87967977e+00  6.08307199e-01  2.07274038e+00
Ar  3.17496740e+00  1.29031127e+00  2.92705838e+00
Ar  2.95850999e+00  8.95297476e-01 -2.19429968e+00
Ar  3.23365814e+00  1.23503783e+00 -3.08441828e-01
Ar  3.11475902e+00  1.36993915e+00  1.37747661e+00
Ar  2.98535791e+00  2.25962784e+00 -3.04941960e+00
Ar  2.96310136e+00  2.34279473e+00 -1.19689760e+00
Ar  2.82349155e+00  1.92927219e+00  4.46563809e-01
Ar  3.03064539e+00  2.16803344e+00  2.25421560e+00
Ar -2.77775397e+00  2.91249473e+00 -2.95867462e+00
Ar -2.94039089e+00  2.97484878e+00 -1.30411029e+00
Ar -2.97591785e+00  2.60100874e+00  3.58774076e-01
Ar -2.82497723e+00  3.08615038e+00  2.00085600e+00
Ar -2.93882768e+00 -2.99379561e+00  2.98564893e+00
Ar -2.77133549e+00 -2.88163368e+00 -2.10322352e+00
Ar -2.63022133e+00 -3.03251041e+00 -4.01200535e-01
Ar -2.79250224e+00 -3.03242886e+00  9.32325005e-01
Ar -2.83683671e+00 -1.97051049e+00 -2.94285807e+00
Ar -2.91398749e+00 -2.13387275e+00 -1.23987791e+00
Ar -2.78509353e+00 -2.14886892e+00  2.58546270e-01
Ar -3.00068764e+00 -2.26094250e+00  2.00088715e+00
Ar -2.73707908e+00 -1.31840980e+00  2.72140805e+00
Ar -2.93944373e+00 -1.13894045e+00 -2.05857124e+00
Ar -3.09883473e+00 -1.22130547e+00 -1.10148705e-01
Ar -2.91734518e+00 -1.01354436e+00  1.12317307e+00
Ar -2.58482775e+00 -3.72558956e-01 -3.04535700e+00
Ar -3.13903706e+00 -2.12911773e-01 -1.10017830e+00
Ar -3.15791490e+00 -2.41708418e-01  1.86949211e-01
Ar -2.95216363e+00 -5.51687075e-01  2.06972175e+00
Ar -2.60132169e+00  4.46694167e-01  2.80446855e+00
Ar -2.90467470e+00  3.48715674e-01 -2.28682717e+00
Ar -2.61496871e+00  5.67382663e-01 -3.39793838e-01
Ar -2.94807751e+00  3.97151575e-01  1.20359422e+00
Ar -2.72972338e+00  1.01933152e+00 -3.02128417e+00
Ar -2.96244850e+00  1.35396646e+00 -1.49012424e+00
Ar -2.80447850e+00  1.52669148e+00  5.30356733e-01
Ar -2.78469397e+00  1.27608678e+00  2.16264648e+00
Ar -2.79624888e+00  2.19309950e+00  2.99593081e+00
Ar -2.93437055e+00  2.32003226e+00 -2.14000193e+00
Ar -2.76336463e+00  2.00961584e+00 -5.90409983e-01
Ar -2.83337738e+00  2.21053918e+00  1.47435596e+00
Ar -1.98312377e+00  3.03410849e+00  2.89760665e+00
Ar -1.96074175e+00  2.96720369e+00 -2.27581393e+00
Ar -1.97512931e+00  2.91018293e+00 -6.07198622e-01
Ar -2.08798773e+00  2.87035336e+00  1.12473996e+00
Ar -2.02094721e+00 -2.84110405e+00 -2.93031769e+00
Ar -1.99254852e+00 -2.88595043e+00 -1.30026314e+00
Ar -1.95704589e+00 -2.87330824e+00  3.94153248e-01
Ar -2.09325663e+00 -2.97739175e+00  2.01696120e+00
Ar -2.13979637e+00 -2.20347817e+00  2.78706908e+00
Ar -2.05553167e+00 -1.86427138e+00 -1.98765461e+00
Ar -2.02762590e+00 -1.91222633e+00 -7.90688363e-01
Ar -2.24986610e+00 -1.99455538e+00  1.22934415e+00
Ar -1.97811158e+00 -1.09522187e+00 -3.14427038e+00
Ar -2.12348312e+00 -5.88204879e-01 -7.32843264e-01
Ar -1.96006402e+00 -1.44462027e+00  3.97453938e-02
Ar -1.96231588e+00 -1.21162607e+00  1.98585778e+00
Ar -2.02140412e+00 -3.90129246e-01  2.62171913e+00
Ar -2.00197907e+00 -3.46793973e-01 -2.12521020e+00
Ar -2.21169965e+00 -5.62076562e-01  4.30977646e-01
Ar -1.82561881e+00 -3.59826577e-01  1.35225350e+00
Ar -1.85354211e+00  3.80267286e-01 -3.08067380e+00
Ar -1.96547544e+00  3.74219351e-01 -1.28467325e+00
Ar -1.87200067e+00  5.25915860e-01  5.45611071e-01
Ar -2.01846698e+00  5.62118262e-01  1.86568280e+00
Ar -2.04978787e+00  1.40691088e+00  2.98254493e+00
Ar -2.01386174e+00  1.21764343e+00 -2.27637101e+00
Ar -2.01380151e+00  1.34034198e+00 -4.84144965e-01
Ar -2.00808143e+00  1.54204709e+00  1.37134364e+00
Ar -2.16550826e+00  1.99669587e+00 -2.83640491e+00
Ar -1.98096461e+00  2.07375886e+00 -1.63475754e+00
Ar -1.77219446e+00  2.22353282e+00  3.47952882e-01
Ar -1.95296359e+00  2.16035702e+00  2.28001312e+00
Ar -1.19561106e+00  2.84461845e+00 -3.08985542e+00
Ar -1.28089033e+00  2.93605009e+00 -1.38168866e+00
Ar -1.23329240e+00  3.08046294e+00  3.36488388e-01
Ar -1.31982019e+00  3.00984412e+00  1.99502904e+00
Ar -1.27519452e+00 -2.90532779e+00  2.83317020e+00
Ar -1.11199265e+00 -2.88367976e+00 -2.00953515e+00
Ar -1.25157521e+00 -2.71536483e+00 -4.10050558e-01
Ar -1.02947337e+00 -2.99744729e+00  1.10427443e+00
Ar -1.04112831e+00 -1.91589547e+00 -3.01673194e+00
Ar -1.12805378e+00 -2.04948170e+00 -1.29960074e+00
Ar -1.20546106e+00 -2.07961720e+00  3.95148843e-01
Ar -1.35739407e+00 -2.15235159e+00  2.08072585e+00
Ar -1.20686298e+00 -1.35474803e+00  2.67784324e+00
Ar -1.26993420e+00 -1.21569698e+00 -2.13185737e+00
Ar -1.22703832e+00 -1.22276269e+00 -7.06466163e-01
Ar -1.20240940e+00 -1.18442329e+00  1.28383960e+00
Ar -1.13668455e+00 -4.46299912e-01 -3.10019884e+00
Ar -1.20462828e+00 -4.34231118e-01 -1.40592399e+00
Ar -1.20593583e+00 -4.47372870e-01  1.45274236e-01
Ar -1.07514155e+00 -4.29719128e-01  2.16415566e+00
Ar -1.23615874e+00  4.76437075e-01  2.75717305e+00
Ar -1.25928891e+00  5.19312992e-01 -2.06720342e+00
Ar -1.17598571e+00  3.94609987e-01 -5.13883754e-01
Ar -1.03004551e+00  6.20604194e-01  1.24625989e+00
Ar -1.13355369e+00  1.11817199e+00 -2.96011376e+00
Ar -1.19810277e+00  1.24105705e+00 -1.28285447e+00
Ar -1.09080334e+00  1.36336930e+00  4.49852622e-01
Ar -1.17856101e+00  1.30497691e+00  2.05839126e+00
Ar -1.08474270e+00  1.94862558e+00  2.99516230e+00
Ar -1.16953480e+00  2.05424133e+00 -2.28040414e+00
Ar -1.17415029e+00  1.93026184e+00 -5.00150529e-01
Ar -1.22805924e+00  2.19197482e+00  1.32678853e+00
Ar -4.60370124e-01  2.91392782e+00  2.77418364e+00
Ar -3.86502823e-01  2.85329936e+00 -2.25121220e+00
Ar -5.36134024e-01  2.89245311e+00 -4.49714387e-01
Ar -3.07035179e-01  2.97277761e+00  1.11052163e+00
Ar -5.13889000e-01 -3.04519472e+00 -2.92424246e+00
Ar -4.08771230e-01 -2.94109168e+00 -1.29530871e+00
Ar -2.81347061e-01 -2.76510976e+00  2.31677374e-01
Ar -5.22654855e-01 -2.93096934e+00  2.07919816e+00
Ar -5.04528043e-01 -2.04714962e+00  2.82724226e+00
Ar -2.86978900e-01 -1.98531372e+00 -2.13714916e+00
Ar -4.32256766e-01 -2.01041132e+00 -3.88956264e-01
Ar -4.83818542e-01 -2.08552807e+00  1.24785073e+00
Ar -2.40299584e-01 -1.24698186e+00 -3.03706417e+00
Ar -3.21986152e-02 -1.27536447e+00 -1.23589541e+00
Ar -4.25335569e-01 -1.30535047e+00  5.82042434e-01
Ar -2.83466746e-01 -1.33639233e+00  1.90632120e+00
Ar -3.37959054e-01 -5.16134511e-01  2.87203529e+00
Ar -3.62640138e-01 -6.15110924e-01 -2.14191663e+00
Ar -3.94121531e-01 -7.24298960e-01 -4.58187395e-01
Ar -2.74722873e-01 -4.75066107e-01  1.20749800e+00
Ar -4.00959533e-01  3.94930338e-01 -3.19975028e+00
Ar -4.56527874e-01  5.06053435e-01 -1.28492545e+00
Ar -3.95886811e-01  5.18700376e-01  3.87490883e-01
Ar -4.43351728e-01  3.67606925e-01  2.04292109e+00
Ar -4.48867168e-01  1.18107674e+00  2.71464593e+00
Ar -5.11835855e-01  1.29868063e+00 -2.15422054e+00
Ar -4.18380262e-01  1.21294243e+00 -4.16861295e-01
Ar -2.28394611e-01  1.31592774e+00  1.20260666e+00
Ar -2.94188251e-01  2.14786043e+00 -3.08545263e+00
Ar -6.53922579e-01  2.19025166e+00 -1.37056835e+00
Ar -2.92134077e-01  2.07161245e+00  3.75407190e-01
Ar -4.54365211e-01  2.05105704e+00  2.06636371e+00
Ar  3.62383787e-01  3.01288585e+00 -2.98337038e+00
Ar  5.20138209e-01  2.69975850e+00 -1.29420417e+00
Ar  3.41129280e-01  2.89760209e+00  1.79120528e-01
Ar  3.81776146e-01  2.84209560e+00  1.98088228e+00
Ar  2.78378150e-01 -2.98838519e+00  2.87148003e+00
Ar  5.09742567e-01 -3.02052954e+00 -2.14001433e+00
Ar  4.45162684e-01 -3.15707289e+00 -7.26469434e-01
Ar  5.08888133e-01 -2.99502981e+00  1.11581449e+00
Ar  2.87795730e-01 -2.15675049e+00 -3.06014894e+00
Ar  6.67288360e-01 -2.04611746e+00 -1.46732098e+00
Ar  5.24064997e-01 -2.01313484e+00  4.39405859e-01
Ar  3.81683583e-01 -2.16866127e+00  2.03054460e+00
Ar  4.89084645e-01 -1.11727380e+00  2.87288172e+00
Ar  5.13430605e-01 -1.23217369e+00 -2.22136823e+00
Ar  5.81161076e-01 -1.30321925e+00 -4.35686102e-01
Ar  5.90108876e-01 -1.44811518e+00  1.29902148e+00
Ar  5.58882226e-01 -5.10187906e-01 -2.98055381e+00
Ar  5.22675797e-01 -4.61236154e-01 -1.28815099e+00
Ar  4.58334963e-01 -3.60330827e-01  3.59031377e-01
Ar  3.30583148e-01 -3.54488249e-01  2.04990036e+00
Ar  4.62853369e-01  1.72020627e-01  2.97961932e+00
Ar  4.99292883e-01  1.88123318e-01 -2.18504325e+00
Ar  5.33212287e-01  4.28825172e-01 -4.79237121e-01
Ar  3.59503574e-01  3.42724805e-01  1.14887843e+00
Ar  4.03590398e-01  1.23487526e+00 -3.07803319e+00
Ar  2.62500447e-01  1.18829421e+00 -1.22549626e+00
Ar  3.53703807e-01  1.19484256e+00  3.19815507e-01
Ar  4.34523061e-01  1.09863977e+00  2.00753044e+00
Ar  4.04727587e-01  2.01806075e+00  2.97523113e+00
Ar  4.24535825e-01  2.02152516e+00 -2.20752657e+00
Ar  4.88821416e-01  1.94038558e+00 -4.23804729e-01
Ar  4.14846492e-01  2.16459917e+00  1.13635252e+00
Ar  1.25521090e+00  3.01657049e+00  3.05300516e+00
Ar  1.16659243e+00  2.73175089e+00 -2.16561652e+00
Ar  1.28452919e+00  2.87723294e+00 -5.44839948e-01
Ar  1.17424548e+00  2.90777056e+00  1.24128710e+00
Ar  1.12356421e+00 -2.93327068e+00 -2.91469501e+00
Ar  1.30601489e+00 -3.08190990e+00 -1.46598873e+00
Ar  1.04395414e+00 -3.00814290e+00  1.79168824e-01
Ar  1.16839198e+00 -3.07609258e+00  2.07374011e+00
Ar  1.34405345e+00 -2.00105141e+00  2.28194299e+00
Ar  1.29870185e+00 -2.01443907e+00 -2.27447147e+00
Ar  1.22673388e+00 -2.17836821e+00 -4.45978652e-01
Ar  1.25784580e+00 -2.26797960e+00  1.17515691e+00
Ar  1.43316517e+00 -1.34981022e+00 -3.04906503e+00
Ar  1.32250793e+00 -1.12114577e+00 -1.23623201e+00
Ar  1.40622809e+00 -1.22903325e+00  3.64254406e-01
Ar  1.29903725e+00 -9.41594352e-01  2.10001124e+00
Ar  1.47327934e+00 -3.47814142e-01  2.93714363e+00
Ar  1.44064140e+00 -4.60340681e-01 -2.07221191e+00
Ar  1.31773985e+00 -3.54773859e-01 -4.98803284e-01
Ar  1.12640681e+00 -4.46434588e-01  1.20011755e+00
Ar  1.18992192e+00  4.54873222e-01 -2.89616707e+00
Ar  1.34459608e+00  6.43454170e-01 -1.33244936e+00
Ar  1.29666944e+00  4.61362056e-01  4.38647704e-01
Ar  1.27688855e+00  3.26052920e-01  1.94480089e+00
Ar  1.09206130e+00  1.12880601e+00  2.79079860e+00
Ar  1.29401918e+00  1.29090960e+00 -2.08135906e+00
Ar  1.47686979e+00  1.16761543e+00 -3.01350303e-01
Ar  1.27614199e+00  1.25658265e+00  1.16137542e+00
Ar  1.28748597e+00  2.11240849e+00 -3.20051965e+00
Ar  1.14221181e+00  1.87721849e+00 -1.24946700e+00
Ar  1.38780338e+00  2.13217546e+00  3.62935047e-01
Ar  1.23335817e+00  2.18124406e+00  2.21539037e+00
Ar  1.97775046e+00  2.81783299e+00 -2.88030491e+00
Ar  2.00913824e+00  2.73819528e+00 -1.36575204e+00
Ar  2.15867981e+00  2.91087879e+00  5.11661559e-01
Ar  1.96221281e+00  2.95692748e+00  2.08158591e+00
Ar  2.19794004e+00 -3.06117830e+00  2.92778579e+00
Ar  2.14871157e+00 -3.06340367e+00 -2.25930916e+00
Ar  2.12162745e+00 -2.96964201e+00 -4.72400989e-01
Ar  2.04757004e+00 -2.98849040e+00  1.21232690e+00
Ar  2.16926650e+00 -2.28815151e+00 -2.99041215e+00
Ar  1.98128573e+00 -2.15755693e+00 -1.34237950e+00
Ar  1.90656393e+00 -2.16299626e+00  3.69942715e-01
Ar  2.30500772e+00 -2.18266554e+00  1.99087761e+00
Ar  2.24720525e+00 -1.23086677e+00  2.93287677e+00
Ar  2.24312410e+00 -1.51870339e+00 -2.17850639e+00
Ar  2.12185137e+00 -1.50353760e+00 -4.64486432e-01
Ar  1.89800087e+00 -1.31469475e+00  1.31679901e+00
Ar  2.12786835e+00 -4.05318251e-01 -2.99282460e+00
Ar  2.28531194e+00 -7.41580115e-01 -1.36001615e+00
Ar  2.01789496e+00 -3.14081550e-01  5.89611964e-01
Ar  2.18326486e+00 -3.09807285e-01  2.13413962e+00
Ar  2.13638072e+00  5.56977451e-01  3.09823770e+00
Ar  2.01552763e+00  4.63280567e-01 -2.18679612e+00
Ar  2.27205068e+00  5.67351214e-01 -2.10997355e-01
Ar  2.21138096e+00  3.98981058e-01  1.29575500e+00
Ar  2.31651935e+00  1.33439739e+00 -2.91246793e+00
Ar  2.31946853e+00  1.46909759e+00 -1.05462991e+00
Ar  2.08752944e+00  1.25947635e+00  5.04967098e-01
Ar  2.14929914e+00  1.28761135e+00  2.31096926e+00
Ar  2.21817388e+00  2.23738321e+00  2.84840796e+00
Ar  2.16916174e+00  2.00763179e+00 -2.08078937e+00
Ar  2.29369501e+00  2.38406048e+00 -3.82335609e-01
Ar  1.91864447e+00  2.07026706e+00  1.28822400e+00
256
Lattice="6.717589 0.0 0.0 0.0 6.717589 0.0 0.0 0.0 6.717589" Properties=species:S:1:pos:R:3 Time=200
Ar  2.91893737e+00  2.76164513e+00  2.69567666e+00
Ar  3.22694156e+00  3.02272706e+00 -2.18176532e+00
Ar  2.94052611e+00  3.05038825e+00 -7.48496583e-01
Ar  3.12440819e+00  2.75024618e+00  1.33930686e+00
Ar  3.12843989e+00 -3.19315377e+00 -3.24309846e+00
Ar  3.02808696e+00 -2.70221205e+00 -1.53919471e+00
Ar  3.14936897e+00 -3.02472151e+00  7.89392029e-01
Ar  3.06192735e+00 -3.09243383e+00  2.05580789e+00
Ar  2.99045304e+00 -2.13117459e+00  2.99615561e+00
Ar  2.90741798e+00 -2.32184411e+00 -2.50196092e+00
Ar  2.89245215e+00 -2.13507527e+00 -6.30365881e-01
Ar  3.01832791e+00 -2.16772335e+00  1.32815006e+00
Ar  2.81181339e+00 -1.15449422e+00 -2.96482291e+00
Ar  2.88785325e+00 -1.51474538e+00 -1.61939423e+00
Ar  2.85807261e+00 -1.44728688e+00  5.62755490e-01
Ar  3.01954128e+00 -1.36944496e+00  2.19826817e+00
Ar  2.87700836e+00 -4.93933284e-01  2.88096153e+00
Ar  2.77151309e+00 -4.50935838e-01 -2.24855892e+00
Ar  2.89856109e+00 -9.72390966e-01 -6.34424245e-01
Ar  2.62442803e+00 -5.99907144e-01  1.18674940e+00
Ar  3.08952056e+00  2.51718276e-01 -2.91680027e+00
Ar  2.79307724e+00  4.74259921e-01 -1.58755715e+00
Ar  2.80674956e+00  3.95483673e-01  4.76518445e-01
Ar  2.86403952e+00  4.18928158e-01  2.01352401e+00
Ar  2.89417100e+00  1.17067215e+00  2.80498094e+00
Ar  2.95104344e+00  1.41820855e+00 -2.07230575e+00
Ar  3.04764455e+00  1.43333907e+00 -3.98537953e-01
Ar  2.73168194e+00  1.26616806e+00  1.01107970e+00
Ar  3.02714486e+00  2.18500707e+00 -2.93942798e+00
Ar  3.12363232e+00  2.17562164e+00 -1.22572270e+00
Ar  3.02538180e+00  2.33505606e+00  1.72523333e-01
Ar  3.08864450e+00  1.95013788e+00  1.90922078e+00
Ar -2.71239983e+00  2.94720552e+00 -2.89620319e+00
Ar -2.80296931e+00  2.98778542e+00 -1.28844214e+00
Ar -2.61268379e+00  2.86745607e+00  5.96683823e-01
Ar -2.80019555e+00  2.97714246e+00  2.12961275e+00
Ar -2.81374217e+00 -3.01836547e+00  2.92745852e+00
Ar -2.84565842e+00 -2.77950496e+00 -2.10630220e+00
Ar -3.04572422e+00 -3.10304984e+00 -1.67977303e-01
Ar -2.73332419e+00 -2.78120989e+00  1.30126809e+00
Ar -2.94474139e+00 -2.20368112e+00 -2.95944056e+00
Ar -2.90489918e+00 -1.77722224e+00 -1.20098779e+00
Ar -3.08894305e+00 -2.16844785e+00  4.12091502e-01
Ar -2.97871481e+00 -2.29893665e+00  2.16738830e+00
Ar -2.97098944e+00 -1.40955037e+00  3.14267886e+00
Ar -2.88141888e+00 -1.32722369e+00 -2.20071286e+00
Ar -2.77972492e+00 -9.83593107e-01 -4.32925215e-01
Ar -2.86150928e+00 -1.40872153e+00  1.11823886e+00
Ar -2.95036964e+00 -5.84520747e-01 -2.94356451e+00
Ar -3.26154165e+00 -4.17195574e-01 -1.30449795e+00
Ar -3.23900426e+00 -6.29313227e-01  4.72309849e-01
Ar -3.24975844e+00 -4.63808920e-01  1.94640539e+00
Ar -2.84658639e+00 -2.92957934e-02  2.79000002e+00
Ar -2.80346155e+00  3.20000817e-01 -2.03569386e+00
Ar -2.36225529e+00  1.56105138e-01  4.39379510e-01
Ar -3.09614499e+00  3.61086884e-01  1.22096984e+00
Ar -3.14087276e+00  1.25533423e+00 -2.93954671e+00
Ar -2.85225805e+00  1.40276584e+00 -1.42298378e+00
Ar -2.99986524e+00  1.53300338e+00  6.77681981e-01
Ar -2.79769416e+00  9.89223830e-01  2.13004092e+00
Ar -2.98823669e+00  2.10695511e+00  2.91991610e+00
Ar -2.86574670e+00  2.10846451e+00 -2.22063710e+00
Ar -2.80142693e+00  2.25061188e+00 -4.23235876e-01
Ar -2.57817236e+00  2.09277596e+00  1.47678973e+00
Ar -2.05325478e+00  2.91528016e+00  3.04794987e+00
Ar -1.96518958e+00  3.00417391e+00 -2.05446317e+00
Ar -2.03413462e+00  3.06214734e+00 -5.10380814e-01
Ar -1.94128665e+00  3.10140149e+00  1.35394399e+00
Ar -1.99464651e+00 -2.85117085e+00 -3.01928876e+00
Ar -2.46171861e+00 -2.76012392e+00 -1.08386561e+00
Ar -2.10413885e+00 -2.80051050e+00  3.04921078e-01
Ar -1.89707994e+00 -2.87959902e+00  2.11242243e+00
Ar -2.06826435e+00 -2.11673504e+00  2.85288681e+00
Ar -1.93976053e+00 -2.12989985e+00 -2.09318421e+00
Ar -1.87070078e+00 -2.15188091e+00 -5.28717555e-01
Ar -2.01688617e+00 -2.13733727e+00  1.11701386e+00
Ar -2.02609286e+00 -1.55329947e+00 -3.01303406e+00
Ar -2.09245727e+00 -1.03475860e+00 -1.29324547e+00
Ar -1.79695903e+00 -1.47439259e+00  3.38655974e-01
Ar -1.92317001e+00 -1.28475974e+00  1.99872478e+00
Ar -2.00595269e+00 -6.10119148e-01  2.91012398e+00
Ar -2.10902214e+00 -5.29201787e-01 -2.34886616e+00
Ar -2.11719776e+00  5.40356131e-02 -6.71452858e-01
Ar -2.24979996e+00 -4.02644365e-01  1.34407631e+00
Ar -2.38446583e+00  3.25963154e-01 -3.06509575e+00
Ar -3.14706609e+00  2.98201272e-01 -3.65531208e-01
Ar -1.33919426e+00 -1.17318641e-01  9.58314229e-01
Ar -1.94534031e+00  3.66519059e-01  2.23744355e+00
Ar -2.21248956e+00  1.24291752e+00  3.03523833e+00
Ar -2.19934616e+00  1.25557035e+00 -2.32615047e+00
Ar -2.26444547e+00  1.21633558e+00  1.57685142e-02
Ar -2.11182249e+00  1.27209471e+00  1.34328663e+00
Ar -2.03071179e+00  2.07036586e+00 -3.01723300e+00
Ar -2.04941336e+00  2.08352212e+00 -1.50076275e+00
Ar -1.87022563e+00  2.19222332e+00  5.81954777e-01
Ar -1.95287638e+00  2.10401606e+00  2.37379177e+00
Ar -1.22875865e+00  2.96539988e+00 -2.95148871e+00
Ar -1.20285824e+00  2.69588412e+00 -1.20836986e+00
Ar -1.36747613e+00  3.16302012e+00  5.04106152e-01
Ar -1.27678927e+00  2.98730927e+00  2.34043769e+00
Ar -1.20796513e+00 -2.82269254e+00  2.86090261e+00
Ar -1.30297181e+00 -2.91293014e+00 -2.16682523e+00
Ar -1.05706019e+00 -2.90860082e+00 -4.47174186e-01
Ar -1.07806152e+00 -2.97723466e+00  1.31705172e+00
Ar -9.80822357e-01 -2.19573814e+00 -3.02187353e+00
Ar -1.22738243e+00 -2.34412494e+00 -1.31186390e+00
Ar -1.16879283e+00 -2.22994307e+00  4.24009092e-01
Ar -1.02160708e+00 -2.07207542e+00  2.03834661e+00
Ar -1.13947972e+00 -1.31794005e+00  2.80018111e+00
Ar -9.42572753e-01 -1.56919305e+00 -2.29014597e+00
Ar -1.09493734e+00 -1.21440503e+00 -8.99053321e-01
Ar -1.16541838e+00 -1.18875980e+00  1.23971233e+00
Ar -1.25313029e+00 -4.50360402e-01 -2.93983639e+00
Ar -1.26107368e+00 -2.10787835e-01 -1.22224779e+00
Ar -1.48453597e+00 -5.33271084e-01 -6.23213720e-02
Ar -1.02627415e+00 -2.01839557e-01  1.96327578e+00
Ar -1.22443154e+00  3.08779579e-01  2.96089248e+00
Ar -1.27833350e+00  6.69920076e-01 -2.03690519e+00
Ar -1.09079904e+00  5.18450702e-01 -4.00338162e-01
Ar -1.01167757e+00  7.52531034e-01  1.61841987e+00
Ar -1.32655112e+00  1.24992069e+00 -2.97210171e+00
Ar -1.86111839e+00  1.15316645e+00 -1.09372559e+00
Ar -1.21675326e+00  8.53868508e-01  5.62337937e-01
Ar -1.21113163e+00  1.25449338e+00  2.55673240e+00
Ar -1.17307038e+00  2.09992597e+00  3.07046389e+00
Ar -1.17532520e+00  1.85679362e+00 -2.18589567e+00
Ar -1.34082312e+00  1.86933878e+00 -4.29809467e-01
Ar -1.22916620e+00  2.25282292e+00  1.55876144e+00
Ar -3.94991930e-01  2.77574535e+00  2.92292182e+00
Ar -6.64004497e-01  2.88110275e+00 -2.10550091e+00
Ar -5.72218114e-01  2.74013450e+00 -2.62820428e-01
Ar -4.53215577e-01  2.92013695e+00  1.32543904e+00
Ar -4.57026685e-01 -3.04931913e+00 -3.16139535e+00
Ar -1.61024809e-01 -3.14839627e+00 -1.40902938e+00
Ar -2.32438576e-01 -3.02681914e+00  4.79698209e-01
Ar -4.57352968e-01 -3.04384199e+00  2.29968228e+00
Ar -3.43549749e-01 -2.14559773e+00  2.87771143e+00
Ar -2.53657898e-01 -2.38671335e+00 -2.25252847e+00
Ar -4.60874415e-01 -2.10430914e+00 -3.30162249e-01
Ar -3.84946608e-01 -2.02778521e+00  1.18759871e+00
Ar -5.13485052e-01 -1.13101115e+00 -3.06795782e+00
Ar -1.69377131e-01 -1.38542502e+00 -1.40835182e+00
Ar -4.37089271e-01 -1.29889084e+00  4.76398555e-01
Ar -3.01690191e-01 -1.13055219e+00  1.93363779e+00
Ar -5.58459217e-01 -4.22460727e-01  2.87553961e+00
Ar -4.68932450e-01 -5.75019329e-01 -2.03091830e+00
Ar -3.51891269e-01 -3.72821001e-01 -6.64214760e-01
Ar -2.72954755e-01 -2.53406028e-01  1.20153560e+00
Ar -5.61727658e-01  3.67759265e-01 -2.87421656e+00
Ar -2.76334714e-01  4.23139272e-01 -1.48642693e+00
Ar -3.30897682e-01  3.17123403e-01  3.82664348e-01
Ar -3.34098694e-01  4.84706228e-01  2.31499537e+00
Ar -3.15073991e-01  1.10391294e+00  3.21431450e+00
Ar -3.52212555e-01  1.24555039e+00 -2.31700599e+00
Ar -2.08715821e-01  1.23719655e+00 -1.24991234e-01
Ar -1.27707054e-01  1.02690142e+00  1.18313244e+00
Ar -3.26049083e-01  2.18322185e+00 -2.89061985e+00
Ar -4.10052257e-01  1.64502009e+00 -1.21657408e+00
Ar -7.14636444e-01  1.88134224e+00  5.22077494e-01
Ar -3.54497544e-01  1.77681133e+00  2.06616390e+00
Ar  5.27298032e-01  2.74950563e+00 -3.17993346e+00
Ar  2.19008775e-01  2.66497331e+00 -1.33066265e+00
Ar  3.56306928e-01  2.86725871e+00  6.32328210e-01
Ar  2.70732083e-01  2.94416727e+00  2.11496048e+00
Ar  4.47282871e-01 -3.13949483e+00  2.92144291e+00
Ar  4.16724370e-01  3.31928041e+00 -2.37219624e+00
Ar  2.07497625e-01 -2.86425270e+00 -3.27574493e-01
Ar  3.93527931e-01 -2.89275657e+00  1.21058556e+00
Ar  5.00188330e-01 -2.25854798e+00 -3.24726611e+00
Ar  4.88322327e-01 -2.25460007e+00 -1.31562602e+00
Ar  4.35453302e-01 -2.12421693e+00  4.44845177e-01
Ar  3.56528704e-01 -2.21275363e+00  1.97482109e+00
Ar  3.72716747e-01 -1.27817413e+00  2.89665870e+00
Ar  3.25537688e-01 -1.45511785e+00 -2.39955601e+00
Ar  4.91310308e-01 -1.37530574e+00 -5.13917993e-01
Ar  3.13063855e-01 -1.26944056e+00  1.17803961e+00
Ar  2.12576560e-01 -4.34710712e-01 -2.91125950e+00
Ar  4.03966235e-01 -4.74423220e-01 -1.43393648e+00
Ar  3.98017167e-01 -6.53268608e-01  2.76492541e-01
Ar  4.42951340e-01 -3.07041484e-01  1.92706861e+00
Ar  4.21905614e-01  2.50669101e-01  2.94311816e+00
Ar  3.84367772e-01  4.18231731e-01 -2.45897139e+00
Ar  5.36798324e-01  2.38276968e-01 -2.15310845e-01
Ar  6.46617282e-01  2.10775212e-01  9.32939675e-01
Ar  4.94692648e-01  1.24773102e+00 -3.02247193e+00
Ar  4.88819464e-01  1.02642345e+00 -1.05409347e+00
Ar  7.14198220e-01  1.31556919e+00  4.13252072e-01
Ar  5.01632943e-01  1.08350417e+00  2.21633609e+00
Ar  3.29449479e-01  1.99842674e+00  2.84220318e+00
Ar  5.29997674e-01  1.99188965e+00 -2.21326162e+00
Ar  4.62459869e-01  1.86752996e+00 -4.69333409e-01
Ar  5.42285850e-01  1.99603402e+00  1.19638273e+00
Ar  1.54032013e+00  2.90223403e+00  2.86719575e+00
Ar  1.23934689e+00  2.77233671e+00 -2.16877766e+00
Ar  6.10231171e-01  2.88080404e+00 -3.69900423e-01
Ar  1.24800022e+00  2.96840750e+00  1.30119480e+00
Ar  1.18293558e+00 -3.04038423e+00 -3.00933933e+00
Ar  8.99577028e-01 -3.16640607e+00 -1.16097761e+00
Ar  1.24404784e+00 -3.11924719e+00  2.55738960e-01
Ar  1.31193703e+00 -2.99926850e+00  2.07072492e+00
Ar  1.10524054e+00 -2.05600122e+00  2.73415807e+00
Ar  1.07553048e+00 -2.58074661e+00 -2.10089005e+00
Ar  1.27908660e+00 -2.37791309e+00 -5.40035231e-01
Ar  1.18910093e+00 -2.12768983e+00  1.18975813e+00
Ar  1.22493508e+00 -1.45002148e+00 -3.02469472e+00
Ar  1.13531604e+00 -1.27981142e+00 -1.65594866e+00
Ar  1.43140392e+00 -1.44088517e+00  2.55861222e-01
Ar  1.35349884e+00 -1.39620873e+00  1.94999892e+00
Ar  1.19809483e+00 -4.97586977e-01  2.87437257e+00
Ar  1.23761448e+00 -2.38231518e-01 -2.17262266e+00
Ar  1.20230357e+00 -5.64455308e-01 -5.61988136e-01
Ar  1.30190738e+00 -6.18368442e-01  1.18296950e+00
Ar  1.19406939e+00  3.02325050e-01 -3.11188334e+00
Ar  1.37328738e+00  3.67570097e-01 -1.22838573e+00
Ar  1.45563964e+00  4.77738271e-01  2.49745319e-01
Ar  1.35821837e+00  5.02078500e-01  2.17827485e+00
Ar  1.19862807e+00  1.22366503e+00  2.95959704e+00
Ar  1.31530629e+00  1.08537404e+00 -2.29244047e+00
Ar  1.45921825e+00  1.26561983e+00 -4.82617681e-01
Ar  1.10812630e+00  1.13296664e+00  1.42352690e+00
Ar  1.40857885e+00  2.03018956e+00 -3.06527048e+00
Ar  1.08974479e+00  2.02181539e+00 -1.34717739e+00
Ar  1.36533072e+00  2.39686593e+00  3.16638827e-01
Ar  1.29283722e+00  2.07745097e+00  2.07968952e+00
Ar  2.24810697e+00  2.93448815e+00 -2.90979793e+00
Ar  1.85906261e+00  2.68812478e+00 -1.20018583e+00
Ar  2.28001045e+00  3.16931210e+00  1.42094095e-01
Ar  2.13829075e+00  2.92898123e+00  1.93142562e+00
Ar  2.24459682e+00 -3.03125674e+00  2.75682985e+00
Ar  1.98224168e+00 -3.24045448e+00 -1.89550136e+00
Ar  2.01944449e+00 -3.10523959e+00 -7.31594872e-01
Ar  2.05659329e+00 -2.91537536e+00  1.32668110e+00
Ar  2.02940684e+00 -2.31425772e+00 -3.30187709e+00
Ar  2.03200756e+00 -2.32543718e+00 -1.54830594e+00
Ar  2.32233072e+00 -2.46144633e+00  4.32024644e-01
Ar  2.16791166e+00 -2.04171922e+00  2.10730893e+00
Ar  1.96087259e+00 -1.28058090e+00  3.01397547e+00
Ar  1.89651311e+00 -1.07859858e+00 -2.28566609e+00
Ar  1.93348292e+00 -1.58313731e+00 -6.12340971e-01
Ar  2.10578748e+00 -1.74387090e+00  1.13300821e+00
Ar  2.02985864e+00 -3.38917850e-01 -3.12416909e+00
Ar  2.28049871e+00 -6.29061300e-01 -1.34316619e+00
Ar  1.98533448e+00 -4.36446425e-01  2.62958466e-01
Ar  2.04758669e+00 -6.54379382e-01  2.08342025e+00
Ar  2.12320414e+00  4.74420491e-01  3.02751478e+00
Ar  2.13500897e+00  4.33419936e-01 -2.43467523e+00
Ar  2.30511061e+00  1.35833959e-01 -5.73940298e-01
Ar  1.96637379e+00  3.27259829e-01  1.20855512e+00
Ar  2.34323986e+00  1.29110996e+00 -2.94121879e+00
Ar  2.07273214e+00  1.39882332e+00 -1.35971677e+00
Ar  1.92136633e+00  1.39736794e+00  4.78498749e-01
Ar  2.18546926e+00  1.19859689e+00  1.90806135e+00
Ar  2.15897084e+00  1.95755290e+00  2.79703458e+00
Ar  2.14173793e+00  2.08399223e+00 -2.26483665e+00
Ar  2.16191164e+00  2.11617466e+00 -3.39381506e-01
Ar  1.92613553e+00  2.08222829e+00  1.23393552e+00
256
Lattice="6.717589 0.0 0.0 0.0 6.717589 0.0 0.0 0.0 6.717589" Properties=species:S:1:pos:R:3 Time=300
Ar  3.08081282e+00  3.29262641e+00  2.71393679e+00
Ar  3.13023199e+00  3.04852446e+00 -2.26510634e+00
Ar  2.89551802e+00  2.74278302e+00 -3.16971707e-01
Ar  2.97032334e+00  2.91052131e+00  1.33294455e+00
Ar  2.97825537e+00 -3.04256990e+00 -3.12369375e+00
Ar  2.79102391e+00 -2.98322028e+00 -1.26445079e+00
Ar  2.85793792e+00 -2.66952655e+00  5.37781703e-01
Ar  2.87249301e+00 -2.86077494e+00  1.83253432e+00
Ar  3.07930745e+00 -2.13703560e+00  2.93807750e+00
Ar  2.87772851e+00 -2.25001885e+00 -2.13548751e+00
Ar  2.99786834e+00 -1.96278802e+00 -5.46562443e-01
Ar  3.00830990e+00 -1.75086569e+00  1.23063880e+00
Ar  2.92968605e+00 -1.26009422e+00 -2.94512461e+00
Ar  2.81305101e+00 -1.15523824e+00 -1.40588074e+00
Ar  2.88416529e+00 -1.06632761e+00  2.79867050e-01
Ar  2.98069630e+00 -9.80214725e-01  2.15085334e+00
Ar  2.66298658e+00 -3.57323687e-01  2.93172413e+00
Ar  2.98034808e+00 -3.33777483e-01 -2.14724928e+00
Ar  2.89088811e+00 -4.75543561e-01 -6.08509165e-01
Ar  2.94851571e+00 -5.31619724e-01  1.23802379e+00
Ar  3.03226186e+00  4.74113696e-01 -2.92279358e+00
Ar  3.16084806e+00  5.05104474e-01 -1.11297341e+00
Ar  2.95768834e+00  1.80425801e-01  3.51599463e-01
Ar  2.84531437e+00  2.60724268e-01  2.05823557e+00
Ar  2.85983804e+00  1.24702390e+00  2.82060235e+00
Ar  2.90471447e+00  1.43889512e+00 -2.08611842e+00
Ar  3.02628239e+00  1.09307311e+00 -1.78573357e-01
Ar  2.89766330e+00  1.05764651e+00  1.08130153e+00
Ar  2.72678662e+00  2.16650095e+00 -2.94880289e+00
Ar  2.92729165e+00  2.08731539e+00 -1.16877575e+00
Ar  2.55066503e+00  1.95438293e+00  3.96052237e-01
Ar  2.78047667e+00  2.03637274e+00  2.05287792e+00
Ar -2.88520299e+00  2.89614014e+00 -3.27500434e+00
Ar -3.04158819e+00  2.83368290e+00 -1.30458145e+00
Ar -3.02316173e+00  2.91872601e+00  4.19033117e-01
Ar -2.75403065e+00 -3.22857813e+00  1.61281185e+00
Ar -2.76424699e+00 -2.73814914e+00  2.98738740e+00
Ar -2.96181584e+00 -2.90281608e+00 -2.26201838e+00
Ar -3.17302165e+00 -2.99988868e+00 -3.79425467e-01
Ar -2.85003808e+00 -2.70772127e+00  7.03672506e-01
Ar -2.97669356e+00 -2.10020660e+00 -2.94931177e+00
Ar -2.78968904e+00 -2.17850809e+00 -1.40707149e+00
Ar -3.06488302e+00 -1.79393202e+00  2.45928162e-01
Ar -2.98791602e+00 -2.04411194e+00  2.05118812e+00
Ar -3.10127674e+00 -1.14882882e+00  3.05664032e+00
Ar -3.12743413e+00 -1.16742847e+00 -2.09090558e+00
Ar -2.02710498e+00 -5.40682835e-01 -1.90058878e-01
Ar -2.67963196e+00 -1.41764421e+00  1.24564769e+00
Ar -2.95087094e+00 -3.66681981e-01 -2.83659042e+00
Ar -2.98824748e+00 -5.16619640e-01 -1.27485544e+00
Ar -2.91773342e+00 -4.29360398e-01  4.82402482e-01
Ar -2.84681664e+00 -4.99254281e-01  2.05279680e+00
Ar -3.14121912e+00  4.40376810e-01  2.84265927e+00
Ar -3.00434321e+00  3.47898890e-01 -2.04731089e+00
Ar -2.12317500e+00  4.97415917e-01  5.26609998e-01
Ar -2.97453087e+00  4.20220357e-01  1.36041951e+00
Ar -3.08907770e+00  1.35747668e+00 -2.85081172e+00
Ar -2.86610481e+00  1.44657530e+00 -1.41610510e+00
Ar -3.06796273e+00  1.79768718e+00  6.75624162e-01
Ar -2.96412586e+00  1.29223540e+00  2.03758727e+00
Ar -3.14325142e+00  2.08701756e+00  2.81778454e+00
Ar -2.97320716e+00  2.15805105e+00 -2.19111089e+00
Ar -2.87044317e+00  2.08295045e+00 -5.68850814e-01
Ar -2.79133203e+00  2.39851657e+00  1.44733082e+00
Ar -1.85371127e+00  3.10212229e+00  2.84492219e+00
Ar -1.95809602e+00  2.93202060e+00 -2.06552759e+00
Ar -2.25733442e+00  3.04727564e+00 -4.56451905e-01
Ar -2.07012073e+00  3.21203870e+00  8.15358476e-01
Ar -1.90527403e+00 -2.90565638e+00 -3.05375717e+00
Ar -2.01244041e+00 -2.97842879e+00 -1.26048452e+00